 # FeTa2 with C14 Laves structure with box vectors H1=[1-100], H2=[-1-126], H3=[11-21].
  
         168  atoms
           2  atom types
 
      0.000000000000       8.234061789387  xlo xhi
      0.000000000000      16.256516960800  ylo yhi
      0.000000000000      15.911436096712  zlo zhi
      0.000000000000       0.000000000000       3.262533798984  xy xz yz
 
Masses
 
            1   55.84500000             # Fe
            2   180.94788000            # Ta
 
Atoms # atomic
 
         1    1        2.744687263129       0.468288762132       0.143202924870
         2    1        6.861718157823       8.596547242532       0.143202924870
         3    1        2.744687263129       7.901443716616       2.416265224401
         4    1        6.861718157823       7.206340190699       4.689327523931
         5    1        2.744687263129       6.511236664783       6.962389823461
         6    1        6.861718157823       5.816133138866       9.235452122991
         7    1        2.744687263129       5.121029612949      11.508514422522
         8    1        6.861718157823       4.425926087033      13.781576722052
         9    1        6.861718157823      16.029702197016       2.416265224401
        10    1        2.744687263129      15.334598671099       4.689327523931
        11    1        6.861718157823      14.639495145183       6.962389823461
        12    1        2.744687263129      13.944391619266       9.235452122991
        13    1        6.861718157823      13.249288093349      11.508514422522
        14    1        2.744687263129      12.554184567433      13.781576722052
        15    1        2.744687263129       3.248288715109       0.993328224895
        16    1        6.861718157823       2.553185189193       3.266390524425
        17    1        2.744687263129       1.858081663276       5.539452823955
        18    1        6.861718157823      11.376547195509       0.993328224895
        19    1        2.744687263129      10.681443669593       3.266390524425
        20    1        6.861718157823       9.986340143676       5.539452823955
        21    1        2.744687263129       9.291236617759       7.812515123485
        22    1        6.861718157823       8.596133091843      10.085577423016
        23    1        2.744687263129       7.901029565926      12.358639722546
        24    1        6.861718157823       7.205926040010      14.631702022076
        25    1        6.861718157823      17.419495098159       7.812515123485
        26    1        2.744687263129      16.724391572243      10.085577423016
        27    1        6.861718157823      16.029288046326      12.358639722546
        28    1        2.744687263129      15.334184520410      14.631702022076
        29    1        5.489374526258       6.964866192351       2.129859374660
        30    1        1.372343631565       6.269762666434       4.402921674190
        31    1        5.489374526258       5.574659140518       6.675983973720
        32    1        1.372343631565       4.879555614601       8.949046273251
        33    1        5.489374526258       4.184452088685      11.222108572781
        34    1        1.372343631565       3.489348562768      13.495170872311
        35    1        1.372343631565      15.093124672751       2.129859374660
        36    1        5.489374526258      14.398021146834       4.402921674190
        37    1        1.372343631565      13.702917620918       6.675983973720
        38    1        5.489374526258      13.007814095001       8.949046273251
        39    1        1.372343631565      12.312710569085      11.222108572781
        40    1        5.489374526258      11.617607043168      13.495170872311
        41    1        1.372343631565      10.922503517251      15.768233171841
        42    1        5.489374526258      19.050761997651      15.768233171841
        43    1        5.489374526258       4.184866239374       1.279734074636
        44    1        1.372343631565       3.489762713458       3.552796374166
        45    1        5.489374526258       2.794659187541       5.825858673696
        46    1        1.372343631565       2.099555661624       8.098920973226
        47    1        1.372343631565      12.313124719774       1.279734074636
        48    1        5.489374526258      11.618021193857       3.552796374166
        49    1        1.372343631565      10.922917667941       5.825858673696
        50    1        5.489374526258      10.227814142024       8.098920973226
        51    1        1.372343631565       9.532710616108      10.371983272756
        52    1        5.489374526258       8.837607090191      12.645045572287
        53    1        1.372343631565       8.142503564275      14.918107871817
        54    1        5.489374526258      17.660969096508      10.371983272756
        55    1        1.372343631565      16.965865570591      12.645045572287
        56    1        5.489374526258      16.270762044675      14.918107871817
        57    2        0.000000000000       0.000000000000       0.000000000000
        58    2        4.117030894694       8.128258480400       0.000000000000
        59    2        0.000000000000       7.433154954483       2.273062299530
        60    2        4.117030894694       6.738051428567       4.546124599060
        61    2        0.000000000000       6.042947902650       6.819186898591
        62    2        4.117030894694       5.347844376734       9.092249198121
        63    2       -0.000000000000       4.652740850817      11.365311497651
        64    2        4.117030894694       3.957637324900      13.638373797181
        65    2        4.117030894694      15.561413434883       2.273062299530
        66    2        0.000000000000      14.866309908967       4.546124599060
        67    2        4.117030894694      14.171206383050       6.819186898591
        68    2        0.000000000000      13.476102857134       9.092249198121
        69    2        4.117030894694      12.780999331217      11.365311497651
        70    2        0.000000000000      12.085895805300      13.638373797181
        71    2        0.000000000000       3.716577477242       1.136531149765
        72    2        4.117030894694       3.021473951325       3.409593449295
        73    2       -0.000000000000       2.326370425409       5.682655748826
        74    2        4.117030894694       1.631266899492       7.955718048356
        75    2        4.117030894694      11.844835957642       1.136531149765
        76    2        0.000000000000      11.149732431725       3.409593449295
        77    2        4.117030894694      10.454628905808       5.682655748826
        78    2        0.000000000000       9.759525379892       7.955718048356
        79    2        4.117030894694       9.064421853975      10.228780347886
        80    2       -0.000000000000       8.369318328059      12.501842647416
        81    2        4.117030894694       7.674214802142      14.774904946947
        82    2        0.000000000000      17.192680334375      10.228780347886
        83    2        4.117030894694      16.497576808459      12.501842647416
        84    2        0.000000000000      15.802473282542      14.774904946947
        85    2        3.421252673490       5.917552254139       0.584177010979
        86    2        7.538283568184       5.222448728223       2.857239310510
        87    2        3.421252673490       4.527345202306       5.130301610040
        88    2        7.538283568184       3.832241676390       7.403363909570
        89    2        3.421252673490       3.137138150473       9.676426209100
        90    2        7.538283568184      14.045810734539       0.584177010979
        91    2        3.421252673490      13.350707208623       2.857239310510
        92    2        7.538283568184      12.655603682706       5.130301610040
        93    2        3.421252673490      11.960500156790       7.403363909570
        94    2        7.538283568184      11.265396630873       9.676426209100
        95    2        3.421252673490      10.570293104956      11.949488508630
        96    2        7.538283568184       9.875189579040      14.222550808161
        97    2        7.538283568184      18.698551585356      11.949488508630
        98    2        3.421252673490      18.003448059440      14.222550808161
        99    2        1.389497926959       5.575213767625       1.703660193498
       100    2        5.506528821653       4.880110241709       3.976722493028
       101    2        1.389497926959       4.185006715792       6.249784792558
       102    2        5.506528821653       3.489903189876       8.522847092089
       103    2        1.389497926959       2.794799663959      10.795909391619
       104    2        5.506528821653      13.703472248025       1.703660193498
       105    2        1.389497926959      13.008368722109       3.976722493028
       106    2        5.506528821653      12.313265196192       6.249784792558
       107    2        1.389497926959      11.618161670276       8.522847092089
       108    2        5.506528821653      10.923058144359      10.795909391619
       109    2        1.389497926959      10.227954618442      13.068971691149
       110    2        5.506528821653       9.532851092526      15.342033990679
       111    2        5.506528821653      18.356213098842      13.068971691149
       112    2        1.389497926959      17.661109572926      15.342033990679
       113    2        0.693719705756       1.506218802744       1.719571629595
       114    2        4.810750600450       9.634477283144       1.719571629595
       115    2        0.693719705756       8.939373757227       3.992633929125
       116    2        4.810750600450       8.244270231311       6.265696228655
       117    2        0.693719705756       7.549166705394       8.538758528185
       118    2        4.810750600450       6.854063179478      10.811820827716
       119    2        0.693719705756       6.158959653561      13.084883127246
       120    2        4.810750600450       5.463856127645      15.357945426776
       121    2        4.810750600450      17.067632237627       3.992633929125
       122    2        0.693719705756      16.372528711711       6.265696228655
       123    2        4.810750600450      15.677425185794       8.538758528185
       124    2        0.693719705756      14.982321659878      10.811820827716
       125    2        4.810750600450      14.287218133961      13.084883127246
       126    2        0.693719705756      13.592114608044      15.357945426776
       127    2        7.540342083631       5.926936151739       0.553490669936
       128    2        3.423311188938       5.231832625823       2.826552969466
       129    2        7.540342083631       4.536729099906       5.099615268996
       130    2        3.423311188938       3.841625573990       7.372677568526
       131    2        7.540342083631       3.146522048073       9.645739868057
       132    2        3.423311188938       2.451418522156      11.918802167587
       133    2        3.423311188938      14.055194632139       0.553490669936
       134    2        7.540342083631      13.360091106223       2.826552969466
       135    2        3.423311188938      12.664987580306       5.099615268996
       136    2        7.540342083631      11.969884054389       7.372677568526
       137    2        3.423311188938      11.274780528473       9.645739868057
       138    2        7.540342083631      10.579677002556      11.918802167587
       139    2        3.423311188938       9.884573476640      14.191864467117
       140    2        7.540342083631      18.012831957040      14.191864467117
       141    2        6.848680893323       1.860026497436       0.562582919134
       142    2        2.731649998629       1.164922971519       2.835645218664
       143    2        2.731649998629       9.988284977836       0.562582919134
       144    2        6.848680893323       9.293181451919       2.835645218664
       145    2        2.731649998629       8.598077926002       5.108707518194
       146    2        6.848680893323       7.902974400086       7.381769817724
       147    2        2.731649998629       7.207870874169       9.654832117255
       148    2        6.848680893323       6.512767348253      11.927894416785
       149    2        2.731649998629       5.817663822336      14.200956716315
       150    2        6.848680893323      16.726336406402       5.108707518194
       151    2        2.731649998629      16.031232880486       7.381769817724
       152    2        6.848680893323      15.336129354569       9.654832117255
       153    2        2.731649998629      14.641025828653      11.927894416785
       154    2        6.848680893323      13.945922302736      14.200956716315
       155    2        4.812809115897       1.515602700344       1.688885288551
       156    2        0.695778221203       0.820499174427       3.961947588081
       157    2        0.695778221203       9.643861180744       1.688885288551
       158    2        4.812809115897       8.948757654827       3.961947588081
       159    2        0.695778221203       8.253654128911       6.235009887611
       160    2        4.812809115897       7.558550602994       8.508072187142
       161    2        0.695778221203       6.863447077078      10.781134486672
       162    2        4.812809115897       6.168343551161      13.054196786202
       163    2        0.695778221203       5.473240025244      15.327259085732
       164    2        4.812809115897      16.381912609311       6.235009887611
       165    2        0.695778221203      15.686809083394       8.508072187142
       166    2        4.812809115897      14.991705557478      10.781134486672
       167    2        0.695778221203      14.296602031561      13.054196786202
       168    2        4.812809115897      13.601498505644      15.327259085732
