 # FeTa2 with C14 Laves structure with box vectors H1=[1-210], H2=[-1011], H3=[10-12].
  
          72  atoms
           2  atom types
 
      0.000000000000       4.753937790627  xlo xhi
      0.000000000000      11.323355436723  ylo yhi
      0.000000000000      16.956865780333  zlo zhi
      0.000000000000       0.000000000000       4.683897483811  xy xz yz
 
Masses
 
            1   55.84500000             # Fe
            2   180.94788000            # Ta
 
Atoms # atomic
 
         1    1        2.376968895313      10.661573670852       1.298142280294
         2    1        0.000000000000       7.667771439246       4.124286577016
         3    1        2.376968895313       4.673969207641       6.950430873739
         4    1        0.000000000000      13.003522412757       9.776575170461
         5    1        2.376968895313      10.009720181152      12.602719467183
         6    1        0.000000000000       7.015917949546      15.428863763905
         7    1        0.000000000000       4.327591329828       0.585953917520
         8    1        2.376968895313       1.333789098223       3.412098214243
         9    1        0.000000000000       9.663342303339       6.238242510965
        10    1        2.376968895313       6.669540071734       9.064386807687
        11    1        0.000000000000       3.675737840128      11.890531104409
        12    1        2.376968895313      12.005291045245      14.716675401131
        13    1        0.000000000000       8.991334970988       1.528002016428
        14    1        2.376968895313       5.997532739382       4.354146313150
        15    1        0.000000000000       3.003730507776       7.180290609872
        16    1        2.376968895313      11.333283712893      10.006434906594
        17    1        0.000000000000       8.339481481287      12.832579203316
        18    1        2.376968895313       5.345679249682      15.658723500038
        19    1        2.376968895313       4.001961875289       2.240190379202
        20    1        0.000000000000      12.331515080406       5.066334675924
        21    1        2.376968895313       9.337712848800       7.892478972646
        22    1        0.000000000000       6.343910617194      10.718623269368
        23    1        2.376968895313      14.673463822311      13.544767566090
        24    1        0.000000000000      11.679661590706      16.370911862812
        25    2        0.000000000000       0.000000000000       0.000000000000
        26    2        2.376968895313       8.329553205117       2.826144296722
        27    2        0.000000000000       5.335750973511       5.652288593444
        28    2        2.376968895313       2.341948741906       8.478432890166
        29    2        0.000000000000      10.671501947022      11.304577186889
        30    2        2.376968895313       7.677699715417      14.130721483611
        31    2        2.376968895313       5.661677718361      -0.000000000000
        32    2        0.000000000000       2.667875486756       2.826144296722
        33    2        2.376968895313      10.997428691873       5.652288593444
        34    2        0.000000000000       8.003626460267       8.478432890166
        35    2        2.376968895313       5.009824228661      11.304577186889
        36    2        0.000000000000      13.339377433778      14.130721483611
        37    2        1.171845665390       6.489662884598       1.890690534507
        38    2        3.548814560703       3.495860652992       4.716834831229
        39    2        1.171845665390      11.825413858109       7.542979127951
        40    2        3.548814560703       8.831611626503      10.369123424673
        41    2        1.171845665390       5.837809394898      13.195267721396
        42    2        3.548814560703      14.167362600015      16.021412018118
        43    2        3.580903640790       6.491159785714       1.889277462359
        44    2        1.203934745476       3.497357554108       4.715421759081
        45    2        3.580903640790      11.826910759225       7.541566055803
        46    2        1.203934745476       8.833108527619      10.367710352525
        47    2        3.580903640790       5.839306296013      13.193854649247
        48    2        1.203934745476      14.168859501130      16.019998945969
        49    2        4.752749306179      11.646884926933       2.366895848505
        50    2        2.375780410866       8.653082695328       5.193040145227
        51    2        4.752749306179       5.659280463722       8.019184441949
        52    2        2.375780410866      13.988833668839      10.845328738671
        53    2        4.752749306179      10.995031437233      13.671473035393
        54    2        2.375780410866       8.001229205628      16.497617332115
        55    2        2.378157379761       8.006023714906       0.459248448217
        56    2        0.001188484448       5.012221483300       3.285392744939
        57    2        2.378157379761       2.018419251695       6.111537041662
        58    2        0.001188484448      10.347972456812       8.937681338384
        59    2        2.378157379761       7.354170225206      11.763825635106
        60    2        0.001188484448       4.360367993600      14.589969931828
        61    2        3.557133951836       1.841387221635       0.934040690067
        62    2        1.180165056523      10.170940426752       3.760184986789
        63    2        3.557133951836       7.177138195146       6.586329283511
        64    2        1.180165056523       4.183335963541       9.412473580233
        65    2        3.557133951836      12.512889168657      12.238617876955
        66    2        1.180165056523       9.519086937052      15.064762173677
        67    2        1.205123229924       1.839890320519       0.935453762215
        68    2        3.582092125237      10.169443525636       3.761598058937
        69    2        1.205123229924       7.175641294030       6.587742355659
        70    2        3.582092125237       4.181839062425       9.413886652381
        71    2        1.205123229924      12.511392267542      12.240030949104
        72    2        3.582092125237       9.517590035936      15.066175245826
