 # FeTa2 with C14 Laves structure with box vectors H1=[1-210], H2=[-1012], H3=[10-11].
  
          72  atoms
           2  atom types
 
      0.000000000000       4.753937790627  xlo xhi
      0.000000000000      17.591878601533  ylo yhi
      0.000000000000      10.914617061237  zlo zhi
      0.000000000000      -0.000000000000       3.014881880423  xy xz yz
 
Masses
 
            1   55.84500000             # Fe
            2   180.94788000            # Ta
 
Atoms # atomic
 
         1    1       -0.000000000000       8.586341557516       1.441942187312
         2    1        2.376968895313       6.659322417402       5.080147874391
         3    1       -0.000000000000       4.732303277287       8.718353561471
         4    1        2.376968895313      17.382280858283       1.441942187312
         5    1       -0.000000000000      15.455261718168       5.080147874391
         6    1        2.376968895313      13.528242578054       8.718353561471
         7    1        2.376968895313       2.359378396833       2.802631114280
         8    1       -0.000000000000      11.155317697600       2.802631114280
         9    1        2.376968895313       9.228298557485       6.440836801359
        10    1       -0.000000000000       7.301279417371      10.079042488438
        11    1       -0.000000000000      18.024237858252       6.440836801359
        12    1        2.376968895313      16.097218718137      10.079042488438
        13    1        2.376968895313       7.078517903902       2.196263499767
        14    1       -0.000000000000       5.151498763788       5.834469186846
        15    1        2.376968895313       3.224479623673       9.472674873925
        16    1        0.000000000000      15.874457204669       2.196263499767
        17    1        2.376968895313      13.947438064554       5.834469186846
        18    1       -0.000000000000      12.020418924440       9.472674873925
        19    1        2.376968895313       4.509541763819       0.835574572799
        20    1       -0.000000000000       2.582522623704       4.473780259878
        21    1        0.000000000000      13.305481064585       0.835574572799
        22    1        2.376968895313      11.378461924471       4.473780259878
        23    1       -0.000000000000       9.451442784356       8.111985946957
        24    1        2.376968895313      18.247382085123       8.111985946957
        25    2        0.000000000000       0.000000000000       0.000000000000
        26    2        2.376968895313       8.795939300766      -0.000000000000
        27    2       -0.000000000000       6.868920160652       3.638205687079
        28    2        2.376968895313       4.941901020538       7.276411374158
        29    2        2.376968895313      15.664859461418       3.638205687079
        30    2       -0.000000000000      13.737840321304       7.276411374158
        31    2       -0.000000000000       3.434460080326       1.819102843540
        32    2        2.376968895313       1.507440940212       5.457308530619
        33    2        2.376968895313      12.230399381092       1.819102843540
        34    2       -0.000000000000      10.303380240978       5.457308530619
        35    2        2.376968895313       8.376361100864       9.095514217698
        36    2       -0.000000000000      17.172300401630       9.095514217698
        37    2        3.548814560703       4.826023885810       3.343511026426
        38    2        1.171845665390       2.899004745695       6.981716713505
        39    2        1.171845665390      13.621963186576       3.343511026426
        40    2        3.548814560703      11.694944046462       6.981716713505
        41    2        1.171845665390       9.767924906347      10.619922400584
        42    2        3.548814560703      18.563864207114      10.619922400584
        43    2        1.203934745476       4.826987395380       3.341691923582
        44    2        3.580903640790       2.899968255265       6.979897610661
        45    2        3.580903640790      13.622926696146       3.341691923582
        46    2        1.203934745476      11.695907556032       6.979897610661
        47    2        3.580903640790       9.768888415917      10.618103297740
        48    2        1.203934745476      18.564827716684      10.618103297740
        49    2        4.752749306179       1.066861080374       2.137445841159
        50    2        2.375780410866       9.862800381141       2.137445841159
        51    2        4.752749306179       7.935781241026       5.775651528238
        52    2        2.375780410866       6.008762100912       9.413857215317
        53    2        2.375780410866      16.731720541793       5.775651528238
        54    2        4.752749306179      14.804701401678       9.413857215317
        55    2        0.001188484448       5.802059080278       1.500759845920
        56    2        2.378157379761       3.875039940163       5.138965532999
        57    2        2.378157379761      14.597998381044       1.500759845920
        58    2        0.001188484448      12.670979240930       5.138965532999
        59    2        2.378157379761      10.743960100815       8.777171220078
        60    2        0.001188484448      19.539899401582       8.777171220078
        61    2        3.557133951836       2.043859784412       0.292875557810
        62    2        1.180165056523      10.839799085179       0.292875557810
        63    2        3.557133951836       8.912779945064       3.931081244889
        64    2        1.180165056523       6.985760804950       7.569286931968
        65    2        1.180165056523      17.708719245831       3.931081244889
        66    2        3.557133951836      15.781700105716       7.569286931968
        67    2        1.205123229924       2.042896274842       0.294694660653
        68    2        3.582092125237      10.838835575609       0.294694660653
        69    2        1.205123229924       8.911816435494       3.932900347732
        70    2        3.582092125237       6.984797295380       7.571106034812
        71    2        3.582092125237      17.707755736261       3.932900347732
        72    2        1.205123229924      15.780736596146       7.571106034812
