 # FeTa2 with C14 Laves structure with box vectors H1=[1-210], H2=[-1014], H3=[20-21].
  
         216  atoms
           2  atom types
 
      0.000000000000       4.753937790627  xlo xhi
      0.000000000000      32.163604435292  ylo yhi
      0.000000000000      17.909244473187  zlo zhi
      0.000000000000      -0.000000000000       3.297978380817  xy xz yz
 
Masses
 
            1   55.84500000             # Fe
            2   180.94788000            # Ta
 
Atoms # atomic
 
         1    1        2.376968895313       7.635958395878       3.441891465606
         2    1       -0.000000000000       6.581975567432       7.421723570759
         3    1        2.376968895313       5.527992738986      11.401555675911
         4    1       -0.000000000000       4.474009910540      15.381387781064
         5    1        0.000000000000      16.203850918924       1.451975413030
         6    1        2.376968895313      15.149868090478       5.431807518182
         7    1        0.000000000000      14.095885262032       9.411639623335
         8    1        2.376968895313      13.041902433586      13.391471728488
         9    1       -0.000000000000      11.987919605140      17.371303833640
        10    1        0.000000000000      23.717760613524       3.441891465606
        11    1        2.376968895313      22.663777785078       7.421723570759
        12    1        0.000000000000      21.609794956632      11.401555675911
        13    1        2.376968895313      20.555812128186      15.381387781064
        14    1        2.376968895313      32.285653136570       1.451975413030
        15    1        0.000000000000      31.231670308124       5.431807518182
        16    1        2.376968895313      30.177687479678       9.411639623335
        17    1        0.000000000000      29.123704651232      13.391471728488
        18    1        2.376968895313      28.069721822786      17.371303833640
        19    1        2.376968895313       2.932250927058       2.196204016693
        20    1       -0.000000000000       1.878268098612       6.176036121846
        21    1        0.000000000000      11.500143450104       0.206287964117
        22    1        2.376968895313      10.446160621658       4.186120069270
        23    1       -0.000000000000       9.392177793212       8.165952174422
        24    1        2.376968895313       8.338194964767      12.145784279575
        25    1       -0.000000000000       7.284212136321      16.125616384727
        26    1        0.000000000000      19.014053144704       2.196204016693
        27    1        2.376968895313      17.960070316258       6.176036121846
        28    1        0.000000000000      16.906087487813      10.155868226999
        29    1        2.376968895313      15.852104659367      14.135700332151
        30    1        2.376968895313      27.581945667750       0.206287964117
        31    1        0.000000000000      26.527962839304       4.186120069270
        32    1        2.376968895313      25.473980010859       8.165952174422
        33    1        0.000000000000      24.419997182413      12.145784279575
        34    1        2.376968895313      23.366014353967      16.125616384727
        35    1        2.376968895313      32.987889705459      10.155868226999
        36    1        0.000000000000      31.933906877013      14.135700332151
        37    1        2.376968895313       7.391860993322       0.537940639546
        38    1       -0.000000000000       6.337878164876       4.517772744699
        39    1        2.376968895313       5.283895336430       8.497604849852
        40    1       -0.000000000000       4.229912507985      12.477436955004
        41    1        2.376968895313       3.175929679539      16.457269060157
        42    1        2.376968895313      14.905770687922       2.527856692123
        43    1        0.000000000000      13.851787859476       6.507688797275
        44    1        2.376968895313      12.797805031031      10.487520902428
        45    1       -0.000000000000      11.743822202585      14.467353007581
        46    1        0.000000000000      23.473663210968       0.537940639546
        47    1        2.376968895313      22.419680382522       4.517772744699
        48    1        0.000000000000      21.365697554077       8.497604849852
        49    1        2.376968895313      20.311714725631      12.477436955004
        50    1       -0.000000000000      19.257731897185      16.457269060157
        51    1        0.000000000000      30.987572905568       2.527856692123
        52    1        2.376968895313      29.933590077123       6.507688797275
        53    1        0.000000000000      28.879607248677      10.487520902428
        54    1        2.376968895313      27.825624420231      14.467353007581
        55    1       -0.000000000000       3.527675939096       3.773544141036
        56    1        2.376968895313       2.473693110650       7.753376246188
        57    1        2.376968895313      12.095568462142       1.783628088459
        58    1        0.000000000000      11.041585633696       5.763460193612
        59    1        2.376968895313       9.987602805250       9.743292298764
        60    1       -0.000000000000       8.933619976804      13.723124403917
        61    1        2.376968895313       7.879637148358      17.702956509070
        62    1        2.376968895313      19.609478156742       3.773544141036
        63    1        0.000000000000      18.555495328296       7.753376246188
        64    1        2.376968895313      17.501512499850      11.733208351341
        65    1       -0.000000000000      16.447529671404      15.713040456493
        66    1        0.000000000000      28.177370679788       1.783628088459
        67    1        2.376968895313      27.123387851342       5.763460193612
        68    1        0.000000000000      26.069405022896       9.743292298764
        69    1        2.376968895313      25.015422194450      13.723124403917
        70    1       -0.000000000000      23.961439366004      17.702956509070
        71    1        0.000000000000      33.583314717496      11.733208351341
        72    1        2.376968895313      32.529331889050      15.713040456493
        73    2        0.000000000000       0.000000000000       0.000000000000
        74    2        0.000000000000       7.513909694600       1.989916052576
        75    2        2.376968895313       6.459926866154       5.969748157729
        76    2       -0.000000000000       5.405944037708       9.949580262881
        77    2        2.376968895313       4.351961209262      13.929412368034
        78    2        2.376968895313      16.081802217646       0.000000000000
        79    2        0.000000000000      15.027819389200       3.979832105153
        80    2        2.376968895313      13.973836560754       7.959664210305
        81    2       -0.000000000000      12.919853732308      11.939496315458
        82    2        2.376968895313      11.865870903863      15.919328420610
        83    2        2.376968895313      23.595711912246       1.989916052576
        84    2        0.000000000000      22.541729083800       5.969748157729
        85    2        2.376968895313      21.487746255354       9.949580262881
        86    2       -0.000000000000      20.433763426909      13.929412368034
        87    2        2.376968895313      31.109621606846       3.979832105153
        88    2        0.000000000000      30.055638778400       7.959664210305
        89    2        2.376968895313      29.001655949955      11.939496315458
        90    2       -0.000000000000      27.947673121509      15.919328420610
        91    2        0.000000000000       3.756954847300       0.994958026288
        92    2        2.376968895313       2.702972018854       4.974790131441
        93    2       -0.000000000000       1.648989190408       8.954622236593
        94    2        0.000000000000      11.270864541900       2.984874078864
        95    2        2.376968895313      10.216881713454       6.964706184017
        96    2       -0.000000000000       9.162898885008      10.944538289170
        97    2        2.376968895313       8.108916056562      14.924370394322
        98    2        2.376968895313      19.838757064946       0.994958026288
        99    2        0.000000000000      18.784774236500       4.974790131441
       100    2        2.376968895313      17.730791408054       8.954622236593
       101    2       -0.000000000000      16.676808579608      12.934454341746
       102    2        2.376968895313      15.622825751163      16.914286446899
       103    2        2.376968895313      27.352666759546       2.984874078864
       104    2        0.000000000000      26.298683931100       6.964706184017
       105    2        2.376968895313      25.244701102654      10.944538289170
       106    2       -0.000000000000      24.190718274209      14.924370394322
       107    2        2.376968895313      32.758610797255      12.934454341746
       108    2        0.000000000000      31.704627968809      16.914286446899
       109    2        3.548814560703       5.457309172943       2.165028665203
       110    2        1.171845665390       4.403326344497       6.144860770356
       111    2        3.548814560703       3.349343516051      10.124692875508
       112    2        1.171845665390      14.025201695989       0.175112612627
       113    2        3.548814560703      12.971218867543       4.154944717779
       114    2        1.171845665390      11.917236039097       8.134776822932
       115    2        3.548814560703      10.863253210651      12.114608928084
       116    2        1.171845665390       9.809270382205      16.094441033237
       117    2        1.171845665390      21.539111390589       2.165028665203
       118    2        3.548814560703      20.485128562143       6.144860770356
       119    2        1.171845665390      19.431145733697      10.124692875508
       120    2        3.548814560703      18.377162905251      14.104524980661
       121    2        3.548814560703      30.107003913635       0.175112612627
       122    2        1.171845665390      29.053021085189       4.154944717779
       123    2        3.548814560703      27.999038256743       8.134776822932
       124    2        1.171845665390      26.945055428297      12.114608928084
       125    2        3.548814560703      25.891072599851      16.094441033237
       126    2        1.171845665390      34.458965122897      14.104524980661
       127    2        1.203934745476       5.457836164357       2.163038749150
       128    2        3.580903640790       4.403853335911       6.142870854303
       129    2        1.203934745476       3.349870507465      10.122702959456
       130    2        3.580903640790      14.025728687403       0.173122696574
       131    2        1.203934745476      12.971745858957       4.152954801727
       132    2        3.580903640790      11.917763030511       8.132786906879
       133    2        1.203934745476      10.863780202065      12.112619012032
       134    2        3.580903640790       9.809797373619      16.092451117184
       135    2        3.580903640790      21.539638382003       2.163038749150
       136    2        1.203934745476      20.485655553557       6.142870854303
       137    2        3.580903640790      19.431672725111      10.122702959456
       138    2        1.203934745476      18.377689896665      14.102535064608
       139    2        1.203934745476      30.107530905049       0.173122696574
       140    2        3.580903640790      29.053548076603       4.152954801727
       141    2        1.203934745476      27.999565248157       8.132786906879
       142    2        3.580903640790      26.945582419711      12.112619012032
       143    2        1.203934745476      25.891599591265      16.092451117184
       144    2        3.580903640790      34.459492114311      14.102535064608
       145    2        4.752749306179       1.522758219050       1.840672348633
       146    2        4.752749306179       9.036667913650       3.830588401209
       147    2        2.375780410866       7.982685085204       7.810420506362
       148    2        4.752749306179       6.928702256758      11.790252611515
       149    2        2.375780410866       5.874719428312      15.770084716667
       150    2        2.375780410866      17.604560436696       1.840672348633
       151    2        4.752749306179      16.550577608250       5.820504453786
       152    2        2.375780410866      15.496594779804       9.800336558938
       153    2        4.752749306179      14.442611951358      13.780168664091
       154    2        2.375780410866      13.388629122912      17.760000769243
       155    2        2.375780410866      25.118470131296       3.830588401209
       156    2        4.752749306179      24.064487302850       7.810420506362
       157    2        2.375780410866      23.010504474404      11.790252611515
       158    2        4.752749306179      21.956521645958      15.770084716667
       159    2        2.375780410866      32.632379825896       5.820504453786
       160    2        4.752749306179      31.578396997450       9.800336558938
       161    2        2.375780410866      30.524414169004      13.780168664091
       162    2        4.752749306179      29.470431340558      17.760000769243
       163    2        0.001188484448       5.991151475551       0.149243703943
       164    2        2.378157379761       4.937168647105       4.129075809096
       165    2        0.001188484448       3.883185818659       8.108907914248
       166    2        2.378157379761       2.829202990213      12.088740019401
       167    2        0.001188484448      13.505061170151       2.139159756520
       168    2        2.378157379761      12.451078341705       6.118991861672
       169    2        0.001188484448      11.397095513259      10.098823966825
       170    2        2.378157379761      10.343112684813      14.078656071977
       171    2        2.378157379761      22.072953693197       0.149243703943
       172    2        0.001188484448      21.018970864751       4.129075809096
       173    2        2.378157379761      19.964988036305       8.108907914248
       174    2        0.001188484448      18.911005207859      12.088740019401
       175    2        2.378157379761      17.857022379413      16.068572124554
       176    2        2.378157379761      29.586863387797       2.139159756520
       177    2        0.001188484448      28.532880559351       6.118991861672
       178    2        2.378157379761      27.478897730905      10.098823966825
       179    2        0.001188484448      26.424914902459      14.078656071977
       180    2        0.001188484448      33.938824597059      16.068572124554
       181    2        1.180165056523       1.003144684626       3.802729576473
       182    2        3.557133951836       9.571037207672       1.812813523897
       183    2        1.180165056523       8.517054379226       5.792645629050
       184    2        3.557133951836       7.463071550780       9.772477734202
       185    2        1.180165056523       6.409088722334      13.752309839355
       186    2        3.557133951836       5.355105893888      17.732141944507
       187    2        3.557133951836      17.084946902272       3.802729576473
       188    2        1.180165056523      16.030964073826       7.782561681626
       189    2        3.557133951836      14.976981245380      11.762393786778
       190    2        1.180165056523      13.922998416934      15.742225891931
       191    2        1.180165056523      25.652839425318       1.812813523897
       192    2        3.557133951836      24.598856596872       5.792645629050
       193    2        1.180165056523      23.544873768426       9.772477734202
       194    2        3.557133951836      22.490890939980      13.752309839355
       195    2        1.180165056523      21.436908111534      17.732141944507
       196    2        3.557133951836      32.112766291472       7.782561681626
       197    2        1.180165056523      31.058783463026      11.762393786778
       198    2        3.557133951836      30.004800634580      15.742225891931
       199    2        3.582092125237       1.002617693211       3.804719492526
       200    2        1.205123229924       9.570510216257       1.814803439950
       201    2        3.582092125237       8.516527387812       5.794635545102
       202    2        1.205123229924       7.462544559366       9.774467650255
       203    2        3.582092125237       6.408561730920      13.754299755407
       204    2        1.205123229924       5.354578902474      17.734131860560
       205    2        1.205123229924      17.084419910858       3.804719492526
       206    2        3.582092125237      16.030437082412       7.784551597678
       207    2        1.205123229924      14.976454253966      11.764383702831
       208    2        3.582092125237      13.922471425520      15.744215807984
       209    2        3.582092125237      25.652312433904       1.814803439950
       210    2        1.205123229924      24.598329605458       5.794635545102
       211    2        3.582092125237      23.544346777012       9.774467650255
       212    2        1.205123229924      22.490363948566      13.754299755407
       213    2        3.582092125237      21.436381120120      17.734131860560
       214    2        1.205123229924      32.112239300058       7.784551597678
       215    2        3.582092125237      31.058256471612      11.764383702831
       216    2        1.205123229924      30.004273643166      15.744215807984
