 # FeTa2 with C14 Laves structure with box vectors H1=[1-100], H2=[-1-122], H3=[11-23].
  
         120  atoms
           2  atom types
 
      0.000000000000       8.234061789387  xlo xhi
      0.000000000000      21.096770839016  ylo yhi
      0.000000000000       8.757756366422  zlo zhi
     -0.000000000000       0.000000000000       2.514007306762  xy xz yz
 
Masses
 
            1   55.84500000             # Fe
            2   180.94788000            # Ta
 
Atoms # atomic
 
         1    1        2.744687263129       0.360848788767       0.331043190651
         2    1        6.861718157823      10.909234208275       0.331043190651
         3    1        2.744687263129       9.302358585726       2.082594463935
         4    1        6.861718157823       7.695482963177       3.834145737220
         5    1        2.744687263129       6.088607340627       5.585697010504
         6    1        6.861718157823       4.481731718078       7.337248283788
         7    1        6.861718157823      19.850744005234       2.082594463935
         8    1        2.744687263129      18.243868382685       3.834145737220
         9    1        6.861718157823      16.636992760136       5.585697010504
        10    1        2.744687263129      15.030117137586       7.337248283788
        11    1        6.861718157823       4.109906109712       0.544732445991
        12    1        2.744687263129       2.503030487163       2.296283719276
        13    1        2.744687263129      14.658291529220       0.544732445991
        14    1        6.861718157823      13.051415906671       2.296283719276
        15    1        2.744687263129      11.444540284122       4.047834992560
        16    1        6.861718157823       9.837664661573       5.799386265845
        17    1        2.744687263129       8.230789039023       7.550937539129
        18    1        6.861718157823      21.992925703630       4.047834992560
        19    1        2.744687263129      20.386050081081       5.799386265845
        20    1        6.861718157823      18.779174458531       7.550937539129
        21    1        5.489374526258       8.580661008192       1.420508082634
        22    1        1.372343631565       6.973785385642       3.172059355918
        23    1        5.489374526258       5.366909763093       4.923610629202
        24    1        1.372343631565       3.760034140544       6.675161902487
        25    1        1.372343631565      19.129046427700       1.420508082634
        26    1        5.489374526258      17.522170805151       3.172059355918
        27    1        1.372343631565      15.915295182601       4.923610629202
        28    1        5.489374526258      14.308419560052       6.675161902487
        29    1        1.372343631565      12.701543937503       8.426713175771
        30    1        5.489374526258      23.249929357011       8.426713175771
        31    1        1.372343631565       4.831603687247       1.206818827293
        32    1        5.489374526258       3.224728064697       2.958370100577
        33    1        1.372343631565       1.617852442148       4.709921373862
        34    1        5.489374526258      15.379989106755       1.206818827293
        35    1        1.372343631565      13.773113484206       2.958370100577
        36    1        5.489374526258      12.166237861656       4.709921373862
        37    1        1.372343631565      10.559362239107       6.461472647146
        38    1        5.489374526258       8.952486616558       8.213023920431
        39    1        5.489374526258      21.107747658615       6.461472647146
        40    1        1.372343631565      19.500872036066       8.213023920431
        41    2        0.000000000000       0.000000000000       0.000000000000
        42    2        4.117030894694      10.548385419508      -0.000000000000
        43    2       -0.000000000000       8.941509796959       1.751551273284
        44    2        4.117030894694       7.334634174410       3.503102546569
        45    2       -0.000000000000       5.727758551860       5.254653819853
        46    2        4.117030894694       4.120882929311       7.006205093138
        47    2        4.117030894694      19.489895216467       1.751551273284
        48    2       -0.000000000000      17.883019593918       3.503102546569
        49    2        4.117030894694      16.276143971368       5.254653819853
        50    2       -0.000000000000      14.669268348819       7.006205093138
        51    2        4.117030894694       4.470754898479       0.875775636642
        52    2       -0.000000000000       2.863879275930       2.627326909927
        53    2        4.117030894694       1.257003653381       4.378878183211
        54    2       -0.000000000000      15.019140317988       0.875775636642
        55    2        4.117030894694      13.412264695438       2.627326909927
        56    2       -0.000000000000      11.805389072889       4.378878183211
        57    2        4.117030894694      10.198513450340       6.130429456495
        58    2       -0.000000000000       8.591637827790       7.881980729780
        59    2       -0.000000000000      20.746898869848       6.130429456495
        60    2        4.117030894694      19.140023247299       7.881980729780
        61    2        7.538283568184       6.694884218361       1.325924313876
        62    2        3.421252673490       5.088008595812       3.077475587161
        63    2        7.538283568184       3.481132973263       4.829026860445
        64    2        3.421252673490      17.243269637869       1.325924313876
        65    2        7.538283568184      15.636394015320       3.077475587161
        66    2        3.421252673490      14.029518392771       4.829026860445
        67    2        7.538283568184      12.422642770222       6.580578133729
        68    2        3.421252673490      10.815767147672       8.332129407014
        69    2        3.421252673490      22.971028189730       6.580578133729
        70    2        7.538283568184      21.364152567180       8.332129407014
        71    2        1.389497926959       7.510373596805       0.437012042684
        72    2        5.506528821653       5.903497974256       2.188563315969
        73    2        1.389497926959       4.296622351706       3.940114589253
        74    2        5.506528821653       2.689746729157       5.691665862538
        75    2        5.506528821653      18.058759016313       0.437012042684
        76    2        1.389497926959      16.451883393764       2.188563315969
        77    2        5.506528821653      14.845007771215       3.940114589253
        78    2        1.389497926959      13.238132148665       5.691665862538
        79    2        5.506528821653      11.631256526116       7.443217135822
        80    2        1.389497926959      22.179641945624       7.443217135822
        81    2        4.810750600450       2.224932757693       0.449272901597
        82    2        0.693719705756      12.773318177201       0.449272901597
        83    2        4.810750600450      11.166442554652       2.200824174882
        84    2        0.693719705756       9.559566932103       3.952375448166
        85    2        4.810750600450       7.952691309553       5.703926721451
        86    2        0.693719705756       6.345815687004       7.455477994735
        87    2        0.693719705756      21.714827974160       2.200824174882
        88    2        4.810750600450      20.107952351611       3.952375448166
        89    2        0.693719705756      18.501076729062       5.703926721451
        90    2        4.810750600450      16.894201106512       7.455477994735
        91    2        3.423311188938       6.716577039266       1.302278371687
        92    2        7.540342083631       5.109701416716       3.053829644971
        93    2        3.423311188938       3.502825794167       4.805380918256
        94    2        7.540342083631       1.895950171618       6.556932191540
        95    2        7.540342083631      17.264962458774       1.302278371687
        96    2        3.423311188938      15.658086836225       3.053829644971
        97    2        7.540342083631      14.051211213675       4.805380918256
        98    2        3.423311188938      12.444335591126       6.556932191540
        99    2        7.540342083631      10.837459968577       8.308483464825
       100    2        3.423311188938      21.385845388085       8.308483464825
       101    2        6.848680893323       1.435956827021       1.309284576780
       102    2        2.731649998629      11.984342246530       1.309284576780
       103    2        6.848680893323      10.377466623980       3.060835850064
       104    2        2.731649998629       8.770591001431       4.812387123349
       105    2        6.848680893323       7.163715378882       6.563938396633
       106    2        2.731649998629       5.556839756332       8.315489669918
       107    2        2.731649998629      20.925852043488       3.060835850064
       108    2        6.848680893323      19.318976420939       4.812387123349
       109    2        2.731649998629      17.712100798390       6.563938396633
       110    2        6.848680893323      16.105225175841       8.315489669918
       111    2        0.695778221203       2.246625578598       0.425626959408
       112    2        4.812809115897       0.639749956048       2.177178232693
       113    2        4.812809115897      12.795010998106       0.425626959408
       114    2        0.695778221203      11.188135375556       2.177178232693
       115    2        4.812809115897       9.581259753007       3.928729505977
       116    2        0.695778221203       7.974384130458       5.680280779261
       117    2        4.812809115897       6.367508507909       7.431832052546
       118    2        0.695778221203      20.129645172515       3.928729505977
       119    2        4.812809115897      18.522769549966       5.680280779261
       120    2        0.695778221203      16.915893927417       7.431832052546
