 # FeTa2 with C14 Laves structure with box vectors H1=[1-210], H2=[0001], H3=[10-10].
  
          24  atoms
           2  atom types
 
      0.000000000000       4.753937790627  xlo xhi
      0.000000000000       7.772940550069  ylo yhi
      0.000000000000       8.234061789387  zlo zhi
 
Masses
 
            1   55.84500000             # Fe
            2   180.94788000            # Ta
 
Atoms # atomic
 
         1    1        2.376968895313       0.489695254654       1.372343631565
         2    1       -0.000000000000       0.489695254654       5.489374526258
         3    1        2.376968895313       3.396775020380       1.372343631565
         4    1       -0.000000000000       3.396775020380       5.489374526258
         5    1        0.000000000000       7.283245295415       2.744687263129
         6    1        2.376968895313       7.283245295415       6.861718157823
         7    1       -0.000000000000       4.376165529689       2.744687263129
         8    1        2.376968895313       4.376165529689       6.861718157823
         9    2        0.000000000000       0.000000000000       0.000000000000
        10    2        2.376968895313       0.000000000000       4.117030894694
        11    2        0.000000000000       3.886470275034       0.000000000000
        12    2        2.376968895313       3.886470275034       4.117030894694
        13    2        3.548814560703       5.829705412552       0.695778221203
        14    2        1.171845665390       5.829705412552       4.812809115897
        15    2        1.203934745476       5.829705412552       0.693719705756
        16    2        3.580903640790       5.829705412552       4.810750600450
        17    2        4.752749306179       1.943235137517       1.389497926959
        18    2        2.375780410866       1.943235137517       5.506528821653
        19    2        2.378157379761       5.829705412552       2.727532967735
        20    2        0.001188484448       5.829705412552       6.844563862428
        21    2        1.180165056523       1.943235137517       3.419194158043
        22    2        3.557133951836       1.943235137517       7.536225052737
        23    2        3.582092125237       1.943235137517       3.421252673490
        24    2        1.205123229924       1.943235137517       7.538283568184
