 # FeTa2 with C14 Laves structure with box vectors H1=[1-100], H2=[0001], H3=[11-20].
  
          24  atoms
           2  atom types
 
      0.000000000000       8.234061789387  xlo xhi
      0.000000000000       7.772940550069  ylo yhi
      0.000000000000       4.753937790627  zlo zhi
 
Masses
 
            1   55.84500000             # Fe
            2   180.94788000            # Ta
 
Atoms # atomic
 
         1    1        2.744687263129       0.489695254654      -0.000000000000
         2    1        6.861718157823       0.489695254654       2.376968895313
         3    1        2.744687263129       3.396775020380      -0.000000000000
         4    1        6.861718157823       3.396775020380       2.376968895313
         5    1        5.489374526258       7.283245295415      -0.000000000000
         6    1        1.372343631565       7.283245295415       2.376968895313
         7    1        5.489374526258       4.376165529689      -0.000000000000
         8    1        1.372343631565       4.376165529689       2.376968895313
         9    2        0.000000000000       0.000000000000       0.000000000000
        10    2        4.117030894694       0.000000000000       2.376968895313
        11    2        0.000000000000       3.886470275034       0.000000000000
        12    2        4.117030894694       3.886470275034       2.376968895313
        13    2        7.538283568184       5.829705412552       1.205123229924
        14    2        3.421252673490       5.829705412552       3.582092125237
        15    2        5.506528821653       5.829705412552       2.375780410866
        16    2        1.389497926959       5.829705412552       4.752749306179
        17    2        0.693719705756       1.943235137517       1.203934745476
        18    2        4.810750600450       1.943235137517       3.580903640790
        19    2        3.423311188938       5.829705412552       1.173034149837
        20    2        7.540342083631       5.829705412552       3.550003045151
        21    2        2.731649998629       1.943235137517       2.371026473075
        22    2        6.848680893323       1.943235137517       4.747995368388
        23    2        4.812809115897       1.943235137517       1.171845665390
        24    2        0.695778221203       1.943235137517       3.548814560703
