 # FeTa2 with C14 Laves structure with box vectors H1=[11-20], H2=[1-100], H3=[0001].
  
          24  atoms
           2  atom types
 
      0.000000000000       4.753937790627  xlo xhi
      0.000000000000       8.234061789387  ylo yhi
      0.000000000000       7.772940550069  zlo zhi
 
Masses
 
            1   55.84500000             # Fe
            2   180.94788000            # Ta
 
Atoms # atomic
 
         1    1       -0.000000000000       2.744687263129       0.489695254654
         2    1        2.376968895313       6.861718157823       0.489695254654
         3    1       -0.000000000000       2.744687263129       3.396775020380
         4    1        2.376968895313       6.861718157823       3.396775020380
         5    1        0.000000000000       5.489374526258       7.283245295415
         6    1        2.376968895313       1.372343631565       7.283245295415
         7    1        0.000000000000       5.489374526258       4.376165529689
         8    1        2.376968895313       1.372343631565       4.376165529689
         9    2        0.000000000000       0.000000000000       0.000000000000
        10    2        2.376968895313       4.117030894694       0.000000000000
        11    2        0.000000000000       0.000000000000       3.886470275034
        12    2        2.376968895313       4.117030894694       3.886470275034
        13    2        1.205123229924       7.538283568184       5.829705412552
        14    2        3.582092125237       3.421252673490       5.829705412552
        15    2        2.375780410866       5.506528821653       5.829705412552
        16    2        4.752749306179       1.389497926959       5.829705412552
        17    2        1.203934745476       0.693719705756       1.943235137517
        18    2        3.580903640790       4.810750600450       1.943235137517
        19    2        1.173034149837       3.423311188938       5.829705412552
        20    2        3.550003045151       7.540342083631       5.829705412552
        21    2        2.371026473075       2.731649998629       1.943235137517
        22    2        4.747995368388       6.848680893323       1.943235137517
        23    2        1.171845665390       4.812809115897       1.943235137517
        24    2        3.548814560703       0.695778221203       1.943235137517
