 # Fe7Ta6 with mu structure with box vectors H1=[11-20] H2=[1-100] H3=[0001].
  
          78  atoms
           2  atom types
 
      0.000000000000       4.848769584157  xlo xhi
      0.000000000000       8.398315273954  ylo yhi
      0.000000000000      26.869450905007  zlo zhi
 
Masses
 
            1   55.84500000             # Fe
            2   180.94788000            # Ta
 
Atoms # atomic
 
         1    1        0.000000000000       0.000000000000       0.000000000000
         2    1        2.424384792078       4.199157636977       0.000000000000
         3    1        0.000000000000       5.598876849303       8.956483635002
         4    1        2.424384792078       1.399719212326       8.956483635002
         5    1        0.000000000000       2.799438424651      17.912967270005
         6    1        2.424384792078       6.998596061628      17.912967270005
         7    1        1.212192396039       6.298736455466      11.016474871053
         8    1        3.636577188118       2.099578818489      11.016474871053
         9    1        1.212192396039       2.099578818489      11.016474871053
        10    1        3.636577188118       6.298736455466      11.016474871053
        11    1        0.000000000000       4.199157636977      11.016474871053
        12    1        2.424384792078       0.000000000000      11.016474871053
        13    1        1.212192396039       6.298736455466      15.852976033954
        14    1        3.636577188118       2.099578818489      15.852976033954
        15    1        1.212192396039       2.099578818489      15.852976033954
        16    1        3.636577188118       6.298736455466      15.852976033954
        17    1        0.000000000000       4.199157636977      15.852976033954
        18    1        2.424384792078       0.000000000000      15.852976033954
        19    1        1.212071156685       3.499368028388      19.972063413748
        20    1        3.636455948763       7.698525665365      19.972063413748
        21    1        1.212192396039       7.698455667791      19.972063413748
        22    1        3.636577188118       3.499298030814      19.972063413748
        23    1        2.424263552724       5.598946846877      19.972063413748
        24    1        4.848648344802       1.399789209900      19.972063413748
        25    1        1.212071156685       3.499368028388      24.808564768834
        26    1        3.636455948763       7.698525665365      24.808564768834
        27    1        1.212192396039       7.698455667791      24.808564768834
        28    1        3.636577188118       3.499298030814      24.808564768834
        29    1        2.424263552724       5.598946846877      24.808564768834
        30    1        4.848648344802       1.399789209900      24.808564768834
        31    1        1.212313635394       0.699789608589       2.060886936945
        32    1        3.636698427472       4.898947245566       2.060886936945
        33    1        1.212192396039       4.899017243140       2.060886936945
        34    1        3.636577188118       0.699859606163       2.060886936945
        35    1        0.000121239355       6.998526064054       2.060886936945
        36    1        2.424506031433       2.799368427077       2.060886936945
        37    1        1.212313635394       0.699789608589       6.897388292031
        38    1        3.636698427472       4.898947245566       6.897388292031
        39    1        1.212192396039       4.899017243140       6.897388292031
        40    1        3.636577188118       0.699859606163       6.897388292031
        41    1        0.000121239355       6.998526064054       6.897388292031
        42    1        2.424506031433       2.799368427077       6.897388292031
        43    2        0.000000000000       0.000000000000      22.390313290519
        44    2        2.424384792078       4.199157636977      22.390313290519
        45    2        0.000000000000       0.000000000000       4.479137614488
        46    2        2.424384792078       4.199157636977       4.479137614488
        47    2        0.000000000000       5.598876849303       4.479137614488
        48    2        2.424384792078       1.399719212326       4.479137614488
        49    2        0.000000000000       5.598876849303      13.434725452503
        50    2        2.424384792078       1.399719212326      13.434725452503
        51    2        0.000000000000       2.799438424651      13.434725452503
        52    2        2.424384792078       6.998596061628      13.434725452503
        53    2        0.000000000000       2.799438424651      22.390313290519
        54    2        2.424384792078       6.998596061628      22.390313290519
        55    2        0.000000000000       0.000000000000      17.572620469067
        56    2        2.424384792078       4.199157636977      17.572620469067
        57    2        0.000000000000       0.000000000000       9.296829635168
        58    2        2.424384792078       4.199157636977       9.296829635168
        59    2        0.000000000000       5.598876849303      26.528208307082
        60    2        2.424384792078       1.399719212326      26.528208307082
        61    2        0.000000000000       5.598876849303      18.252418273956
        62    2        2.424384792078       1.399719212326      18.252418273956
        63    2        0.000000000000       2.799438424651       8.617032631051
        64    2        2.424384792078       6.998596061628       8.617032631051
        65    2       -0.000000000000       2.799438424651       0.341242022370
        66    2        2.424384792078       6.998596061628       0.341242022370
        67    2        0.000000000000       0.000000000000      14.831936528006
        68    2        2.424384792078       4.199157636977      14.831936528006
        69    2        0.000000000000       0.000000000000      12.037514377001
        70    2        2.424384792078       4.199157636977      12.037514377001
        71    2        0.000000000000       5.598876849303      23.787524366021
        72    2        2.424384792078       1.399719212326      23.787524366021
        73    2        0.000000000000       5.598876849303      20.993102215017
        74    2        2.424384792078       1.399719212326      20.993102215017
        75    2       -0.000000000000       2.799438424651       5.876349090376
        76    2        2.424384792078       6.998596061628       5.876349090376
        77    2       -0.000000000000       2.799438424651       3.081925938407
        78    2        2.424384792078       6.998596061628       3.081925938407
